 VARIABLES="X","Y","Z"
ZONE DATAPACKING=POINT, NODES=   31, ELEMENTS=  30, ZONETYPE=FELINESEG
    0.000000E+00    0.000000E+00    0.000000E+00
    0.274200E+00    0.657178E-04    0.148010E-02
    0.548400E+00    0.262871E-03    0.571626E-02
    0.822600E+00    0.591460E-03    0.124022E-01
    0.109680E+01    0.105148E-02    0.212318E-01
    0.137100E+01    0.164294E-02    0.318988E-01
   -0.274200E+00    0.657178E-04    0.148010E-02
   -0.548400E+00    0.262871E-03    0.571626E-02
   -0.822600E+00    0.591460E-03    0.124022E-01
   -0.109680E+01    0.105148E-02    0.212318E-01
   -0.137100E+01    0.164294E-02    0.318988E-01
    0.164462E+01    0.230835E+00    0.440241E-01
    0.191819E+01    0.460097E+00    0.572495E-01
    0.219170E+01    0.689428E+00    0.713000E-01
    0.246514E+01    0.918829E+00    0.859005E-01
    0.273854E+01    0.114830E+01    0.100776E+00
    0.164578E+01   -0.226165E+00    0.440241E-01
    0.192061E+01   -0.453903E+00    0.572495E-01
    0.219550E+01   -0.681572E+00    0.713000E-01
    0.247046E+01   -0.909171E+00    0.859005E-01
    0.274546E+01   -0.113670E+01    0.100776E+00
   -0.164462E+01    0.230835E+00    0.440241E-01
   -0.191819E+01    0.460097E+00    0.572495E-01
   -0.219170E+01    0.689428E+00    0.713000E-01
   -0.246514E+01    0.918829E+00    0.859005E-01
   -0.273854E+01    0.114830E+01    0.100776E+00
   -0.164578E+01   -0.226165E+00    0.440241E-01
   -0.192061E+01   -0.453903E+00    0.572495E-01
   -0.219550E+01   -0.681572E+00    0.713000E-01
   -0.247046E+01   -0.909171E+00    0.859005E-01
   -0.274546E+01   -0.113670E+01    0.100776E+00
    1    2
    2    3
    3    4
    4    5
    5    6
    1    7
    7    8
    8    9
    9   10
   10   11
    6   12
   12   13
   13   14
   14   15
   15   16
    6   17
   17   18
   18   19
   19   20
   20   21
   11   22
   22   23
   23   24
   24   25
   25   26
   11   27
   27   28
   28   29
   29   30
   30   31
